ITEM: TIMESTEP
0
ITEM: NUMBER OF ATOMS
15702
ITEM: BOX BOUNDS ff ff pp
0.0000000000000000e+00 4.0010000000000003e+00
0.0000000000000000e+00 8.0009999999999994e+00
-1.0000000000000000e-03 1.0000000000000000e-03
ITEM: ATOMS id type xs ys zs c_rho_peratom c_e_peratom fx fy 
1 2 0 0 0.5 1000 0 0 0 
2 2 0.00176733 0.000883773 0.5 1000 0 0 0 
3 2 0.00353465 0 0.5 1000 0 0 0 
284 2 0 0.00176755 0.5 1000 0 0 0 
286 2 0.00353465 0.00176755 0.5 1000 0 22.1189 22.1189 
4 2 0.00530198 0.000883773 0.5 1000 0 6.33512 16.5314 
5 2 0.0070693 0 0.5 1000 0 0 0 
6 2 0.00883663 0.000883773 0.5 1000 0 -3.90372 25.6058 
287 2 0.0070693 0.00176755 0.5 1000 0 11.124 78.3635 
7 2 0.010604 0 0.5 1000 0 0 0 
8 2 0.0123713 0.000883773 0.5 1000 0 0.333867 15.2335 
9 2 0.0141386 0 0.5 1000 0 0 0 
288 2 0.010604 0.00176755 0.5 1000 0 -13.8935 71.3001 
289 2 0.0141386 0.00176755 0.5 1000 0 0.861551 53.2582 
10 2 0.0159059 0.000883773 0.5 1000 0 1.25743 15.1148 
11 2 0.0176733 0 0.5 1000 0 0 0 
12 2 0.0194406 0.000883773 0.5 1000 0 -0.841462 15.1458 
290 2 0.0176733 0.00176755 0.5 1000 0 0.401758 51.0631 
13 2 0.0212079 0 0.5 1000 0 0 0 
14 2 0.0229752 0.000883773 0.5 1000 0 -1.09617 15.1081 
291 2 0.0212079 0.00176755 0.5 1000 0 -1.42807 52.4381 
15 2 0.0247426 0 0.5 1000 0 0 0 
16 2 0.0265099 0.000883773 0.5 1000 0 1.51805 15.0695 
17 2 0.0282772 0 0.5 1000 0 0 0 
292 2 0.0247426 0.00176755 0.5 1000 0 0.204687 53.9959 
293 2 0.0282772 0.00176755 0.5 1000 0 1.4575 51.5221 
18 2 0.0300445 0.000883773 0.5 1000 0 0.0830997 15.1674 
19 2 0.0318119 0 0.5 1000 0 0 0 
20 2 0.0335792 0.000883773 0.5 1000 0 -1.52504 15.0734 
294 2 0.0318119 0.00176755 0.5 1000 0 -1.33649 51.3982 
21 2 0.0353465 0 0.5 1000 0 0 0 
22 2 0.0371138 0.000883773 0.5 1000 0 0.916559 15.1343 
23 2 0.0388812 0 0.5 1000 0 0 0 
295 2 0.0353465 0.00176755 0.5 1000 0 -0.295995 53.9279 
296 2 0.0388812 0.00176755 0.5 1000 0 1.25942 52.7 
24 2 0.0406485 0.000883773 0.5 1000 0 0.977714 15.1376 
25 2 0.0424158 0 0.5 1000 0 0 0 
297 2 0.0424158 0.00176755 0.5 1000 0 -0.16772 51.0436 
26 2 0.0441831 0.000883773 0.5 1000 0 -1.151 15.1246 
27 2 0.0459505 0 0.5 1000 0 0 0 
28 2 0.0477178 0.000883773 0.5 1000 0 -0.600883 15.1867 
298 2 0.0459505 0.00176755 0.5 1000 0 -1.0152 53.0458 
29 2 0.0494851 0 0.5 1000 0 0 0 
30 2 0.0512524 0.000883773 0.5 1000 0 1.49502 15.0828 
31 2 0.0530198 0 0.5 1000 0 0 0 
299 2 0.0494851 0.00176755 0.5 1000 0 0.436876 53.791 
300 2 0.0530198 0.00176755 0.5 1000 0 1.11319 51.2566 
32 2 0.0547871 0.000883773 0.5 1000 0 -0.316216 15.1646 
33 2 0.0565544 0 0.5 1000 0 0 0 
34 2 0.0583217 0.000883773 0.5 1000 0 -1.46449 15.0692 
301 2 0.0565544 0.00176755 0.5 1000 0 -1.56502 51.7334 
35 2 0.0600891 0 0.5 1000 0 0 0 
36 2 0.0618564 0.000883773 0.5 1000 0 1.29261 15.0837 
302 2 0.0600891 0.00176755 0.5 1000 0 -0.0831915 54.0521 
37 2 0.0636237 0 0.5 1000 0 0 0 
38 2 0.065391 0.000883773 0.5 1000 0 0.633174 15.1555 
39 2 0.0671584 0 0.5 1000 0 0 0 
303 2 0.0636237 0.00176755 0.5 1000 0 1.56216 52.1106 
304 2 0.0671584 0.00176755 0.5 1000 0 -0.718229 51.119 
40 2 0.0689257 0.000883773 0.5 1000 0 -1.38141 15.1008 
41 2 0.070693 0 0.5 1000 0 0 0 
42 2 0.0724603 0.000883773 0.5 1000 0 0.0573691 15.2565 
305 2 0.070693 0.00176755 0.5 1000 0 -0.668528 53.5144 
43 2 0.0742277 0 0.5 1000 0 0 0 
44 2 0.075995 0.000883773 0.5 1000 0 1.34856 15.1049 
45 2 0.0777623 0 0.5 1000 0 0 0 
306 2 0.0742277 0.00176755 0.5 1000 0 0.722305 53.4446 
307 2 0.0777623 0.00176755 0.5 1000 0 0.627939 51.0992 
46 2 0.0795296 0.000883773 0.5 1000 0 -0.695831 15.153 
47 2 0.081297 0 0.5 1000 0 0 0 
308 2 0.081297 0.00176755 0.5 1000 0 -1.53522 52.2011 
48 2 0.0830643 0.000883773 0.5 1000 0 -1.2418 15.0895 
49 2 0.0848316 0 0.5 1000 0 0 0 
50 2 0.0865989 0.000883773 0.5 1000 0 1.48572 15.0685 
309 2 0.0848316 0.00176755 0.5 1000 0 0.118118 54.0405 
51 2 0.0883663 0 0.5 1000 0 0 0 
52 2 0.0901336 0.000883773 0.5 1000 0 0.248415 15.1657 
53 2 0.0919009 0 0.5 1000 0 0 0 
310 2 0.0883663 0.00176755 0.5 1000 0 1.54199 51.667 
311 2 0.0919009 0.00176755 0.5 1000 0 -1.18422 51.2941 
54 2 0.0936682 0.000883773 0.5 1000 0 -1.50842 15.0797 
55 2 0.0954356 0 0.5 1000 0 0 0 
56 2 0.0972029 0.000883773 0.5 1000 0 0.701091 15.1694 
312 2 0.0954356 0.00176755 0.5 1000 0 -0.393934 53.8361 
57 2 0.0989702 0 0.5 1000 0 0 0 
58 2 0.100738 0.000883773 0.5 1000 0 1.10284 15.1286 
313 2 0.0989702 0.00176755 0.5 1000 0 1.08335 52.9501 
59 2 0.102505 0 0.5 1000 0 0 0 
60 2 0.104272 0.000883773 0.5 1000 0 -1.03099 15.134 
61 2 0.10604 0 0.5 1000 0 0 0 
314 2 0.102505 0.00176755 0.5 1000 0 0.0695646 51.0402 
315 2 0.10604 0.00176755 0.5 1000 0 -1.18447 52.8069 
62 2 0.107807 0.000883773 0.5 1000 0 -0.831769 15.1477 
63 2 0.109574 0 0.5 1000 0 0 0 
64 2 0.111341 0.000883773 0.5 1000 0 1.52092 15.0758 
316 2 0.109574 0.00176755 0.5 1000 0 0.335653 53.8928 
65 2 0.113109 0 0.5 1000 0 0 0 
66 2 0.114876 0.000883773 0.5 1000 0 -0.151784 15.1669 
67 2 0.116643 0 0.5 1000 0 0 0 
317 2 0.113109 0.00176755 0.5 1000 0 1.27692 51.3528 
318 2 0.116643 0.00176755 0.5 1000 0 -1.49723 51.5795 
68 2 0.118411 0.000883773 0.5 1000 0 -1.50783 15.0687 
69 2 0.120178 0 0.5 1000 0 0 0 
70 2 0.121945 0.000883773 0.5 1000 0 1.16051 15.0995 
319 2 0.120178 0.00176755 0.5 1000 0 -0.168364 54.0172 
71 2 0.123713 0 0.5 1000 0 0 0 
320 2 0.123713 0.00176755 0.5 1000 0 1.47993 52.3367 
72 2 0.12548 0.000883773 0.5 1000 0 0.782178 15.1489 
73 2 0.127247 0 0.5 1000 0 0 0 
74 2 0.129015 0.000883773 0.5 1000 0 -1.29713 15.1107 
75 2 0.130782 0 0.5 1000 0 0 0 
321 2 0.127247 0.00176755 0.5 1000 0 -0.496663 51.076 
322 2 0.130782 0.00176755 0.5 1000 0 -0.802202 53.3385 
76 2 0.132549 0.000883773 0.5 1000 0 -0.219496 15.247 
77 2 0.134317 0 0.5 1000 0 0 0 
78 2 0.136084 0.000883773 0.5 1000 0 1.42265 15.0952 
323 2 0.134317 0.00176755 0.5 1000 0 0.596089 53.6057 
79 2 0.137851 0 0.5 1000 0 0 0 
80 2 0.139619 0.000883773 0.5 1000 0 -0.54257 15.1588 
81 2 0.141386 0 0.5 1000 0 0 0 
324 2 0.137851 0.00176755 0.5 1000 0 0.841604 51.152 
325 2 0.141386 0.00176755 0.5 1000 0 -1.58402 51.9901 
82 2 0.143153 0.000883773 0.5 1000 0 -1.35531 15.0773 
83 2 0.144921 0 0.5 1000 0 0 0 
326 2 0.144921 0.00176755 0.5 1000 0 0.0343455 54.0617 
84 2 0.146688 0.000883773 0.5 1000 0 1.4263 15.0714 
85 2 0.148455 0 0.5 1000 0 0 0 
86 2 0.150223 0.000883773 0.5 1000 0 0.411081 15.1626 
327 2 0.148455 0.00176755 0.5 1000 0 1.58454 51.834 
87 2 0.15199 0 0.5 1000 0 0 0 
88 2 0.153757 0.000883773 0.5 1000 0 -1.46991 15.0877 
89 2 0.155525 0 0.5 1000 0 0 0 
328 2 0.15199 0.00176755 0.5 1000 0 -1.00575 51.2089 
329 2 0.155525 0.00176755 0.5 1000 0 -0.500322 53.7202 
90 2 0.157292 0.000883773 0.5 1000 0 0.447823 15.2144 
91 2 0.159059 0 0.5 1000 0 0 0 
92 2 0.160827 0.000883773 0.5 1000 0 1.21511 15.1189 
330 2 0.159059 0.00176755 0.5 1000 0 0.923374 53.1734 
93 2 0.162594 0 0.5 1000 0 0 0 
94 2 0.164361 0.000883773 0.5 1000 0 -0.899137 15.1426 
331 2 0.162594 0.00176755 0.5 1000 0 0.305505 51.0531 
95 2 0.166129 0 0.5 1000 0 0 0 
332 2 0.166129 0.00176755 0.5 1000 0 -1.36522 52.5442 
96 2 0.167896 0.000883773 0.5 1000 0 -1.026 15.118 
97 2 0.169663 0 0.5 1000 0 0 0 
333 2 0.169663 0.00176755 0.5 1000 0 0.241823 53.9706 
98 2 0.171431 0.000883773 0.5 1000 0 1.52392 15.0708 
99 2 0.173198 0 0.5 1000 0 0 0 
100 2 0.174965 0.000883773 0.5 1000 0 0.0142638 15.1675 
334 2 0.173198 0.00176755 0.5 1000 0 1.4115 51.4683 
101 2 0.176733 0 0.5 1000 0 0 0 
102 2 0.1785 0.000883773 0.5 1000 0 -1.52511 15.0715 
103 2 0.180267 0 0.5 1000 0 0 0 
335 2 0.176733 0.00176755 0.5 1000 0 -1.39071 51.4471 
336 2 0.180267 0.00176755 0.5 1000 0 -0.257476 53.9589 
104 2 0.182034 0.000883773 0.5 1000 0 0.995196 15.1225 
105 2 0.183802 0 0.5 1000 0 0 0 
337 2 0.183802 0.00176755 0.5 1000 0 1.33592 52.5893 
106 2 0.185569 0.000883773 0.5 1000 0 0.922527 15.1412 
107 2 0.187336 0 0.5 1000 0 0 0 
108 2 0.189104 0.000883773 0.5 1000 0 -1.19683 15.1206 
338 2 0.187336 0.00176755 0.5 1000 0 -0.265318 51.0497 
109 2 0.190871 0 0.5 1000 0 0 0 
110 2 0.192638 0.000883773 0.5 1000 0 -0.494049 15.2059 
111 2 0.194406 0 0.5 1000 0 0 0 
339 2 0.190871 0.00176755 0.5 1000 0 -0.949727 53.137 
340 2 0.194406 0.00176755 0.5 1000 0 0.481392 53.7418 
112 2 0.196173 0.000883773 0.5 1000 0 1.478 15.0862 
113 2 0.19794 0 0.5 1000 0 0 0 
114 2 0.199708 0.000883773 0.5 1000 0 -0.383437 15.1632 
341 2 0.19794 0.00176755 0.5 1000 0 1.03802 51.2223 
115 2 0.201475 0 0.5 1000 0 0 0 
116 2 0.203242 0.000883773 0.5 1000 0 -1.43849 15.0706 
342 2 0.201475 0.00176755 0.5 1000 0 -1.58046 51.8037 
117 2 0.20501 0 0.5 1000 0 0 0 
118 2 0.206777 0.000883773 0.5 1000 0 1.33804 15.079 
343 2 0.20501 0.00176755 0.5 1000 0 -0.0486051 54.0597 
119 2 0.208544 0 0.5 1000 0 0 0 
344 2 0.208544 0.00176755 0.5 1000 0 1.57953 52.0245 
120 2 0.210312 0.000883773 0.5 1000 0 0.569332 15.1579 
121 2 0.212079 0 0.5 1000 0 0 0 
122 2 0.213846 0.000883773 0.5 1000 0 -1.41122 15.0968 
345 2 0.212079 0.00176755 0.5 1000 0 -0.806038 51.1417 
123 2 0.215614 0 0.5 1000 0 0 0 
124 2 0.217381 0.000883773 0.5 1000 0 0.172044 15.2509 
125 2 0.219148 0 0.5 1000 0 0 0 
346 2 0.215614 0.00176755 0.5 1000 0 -0.616882 53.5798 
347 2 0.219148 0.00176755 0.5 1000 0 0.778321 53.3705 
126 2 0.220916 0.000883773 0.5 1000 0 1.31278 15.109 
127 2 0.222683 0 0.5 1000 0 0 0 
348 2 0.222683 0.00176755 0.5 1000 0 0.535502 51.0822 
128 2 0.22445 0.000883773 0.5 1000 0 -0.757179 15.1502 
129 2 0.226218 0 0.5 1000 0 0 0 
130 2 0.227985 0.000883773 0.5 1000 0 -1.18548 15.0964 
349 2 0.226218 0.00176755 0.5 1000 0 -1.49827 52.296 
131 2 0.229752 0 0.5 1000 0 0 0 
132 2 0.23152 0.000883773 0.5 1000 0 1.50229 15.0685 
133 2 0.233287 0 0.5 1000 0 0 0 
350 2 0.229752 0.00176755 0.5 1000 0 0.153525 54.0248 
351 2 0.233287 0.00176755 0.5 1000 0 1.51177 51.6043 
134 2 0.235054 0.000883773 0.5 1000 0 0.18016 15.1666 
135 2 0.236822 0 0.5 1000 0 0 0 
136 2 0.238589 0.000883773 0.5 1000 0 -1.51806 15.0769 
352 2 0.236822 0.00176755 0.5 1000 0 -1.25076 51.3349 
137 2 0.240356 0 0.5 1000 0 0 0 
138 2 0.242124 0.000883773 0.5 1000 0 0.794814 15.1537 
139 2 0.243891 0 0.5 1000 0 0 0 
353 2 0.240356 0.00176755 0.5 1000 0 -0.352444 53.877 
354 2 0.243891 0.00176755 0.5 1000 0 3.08841 55.0109 
140 2 0.245658 0.000883773 0.5 1000 0 1.51067 16.6077 
141 2 0.247426 0 0.5 1000 0 0 0 
355 2 0.247426 0.00176755 0.5 1000 0 -4.56082 54.3777 
142 2 0.249193 0.000883773 0.5 1000 0 -3.84258 12.5497 
143 2 0.25096 0 0.5 1000 0 0 0 
144 2 0.252727 0.000883773 0.5 1000 0 0 0 
356 2 0.25096 0.00176755 0.5 1000 0 -17.3276 24.1838 
145 2 0.254495 0 0.5 1000 0 0 0 
146 2 0.256262 0.000883773 0.5 1000 0 0 0 
147 2 0.258029 0 0.5 1000 0 0 0 
357 2 0.254495 0.00176755 0.5 1000 0 0 0 
358 2 0.258029 0.00176755 0.5 1000 0 0 0 
148 2 0.259797 0.000883773 0.5 1000 0 0 0 
149 2 0.261564 0 0.5 1000 0 0 0 
150 2 0.263331 0.000883773 0.5 1000 0 0 0 
359 2 0.261564 0.00176755 0.5 1000 0 0 0 
151 2 0.265099 0 0.5 1000 0 0 0 
152 2 0.266866 0.000883773 0.5 1000 0 0 0 
360 2 0.265099 0.00176755 0.5 1000 0 0 0 
153 2 0.268633 0 0.5 1000 0 0 0 
154 2 0.270401 0.000883773 0.5 1000 0 0 0 
155 2 0.272168 0 0.5 1000 0 0 0 
361 2 0.268633 0.00176755 0.5 1000 0 0 0 
362 2 0.272168 0.00176755 0.5 1000 0 0 0 
156 2 0.273935 0.000883773 0.5 1000 0 0 0 
157 2 0.275703 0 0.5 1000 0 0 0 
158 2 0.27747 0.000883773 0.5 1000 0 0 0 
363 2 0.275703 0.00176755 0.5 1000 0 0 0 
159 2 0.279237 0 0.5 1000 0 0 0 
160 2 0.281005 0.000883773 0.5 1000 0 0 0 
161 2 0.282772 0 0.5 1000 0 0 0 
364 2 0.279237 0.00176755 0.5 1000 0 0 0 
365 2 0.282772 0.00176755 0.5 1000 0 0 0 
162 2 0.284539 0.000883773 0.5 1000 0 0 0 
163 2 0.286307 0 0.5 1000 0 0 0 
366 2 0.286307 0.00176755 0.5 1000 0 0 0 
164 2 0.288074 0.000883773 0.5 1000 0 0 0 
165 2 0.289841 0 0.5 1000 0 0 0 
166 2 0.291609 0.000883773 0.5 1000 0 0 0 
367 2 0.289841 0.00176755 0.5 1000 0 0 0 
167 2 0.293376 0 0.5 1000 0 0 0 
168 2 0.295143 0.000883773 0.5 1000 0 0 0 
169 2 0.296911 0 0.5 1000 0 0 0 
368 2 0.293376 0.00176755 0.5 1000 0 0 0 
369 2 0.296911 0.00176755 0.5 1000 0 0 0 
170 2 0.298678 0.000883773 0.5 1000 0 0 0 
171 2 0.300445 0 0.5 1000 0 0 0 
172 2 0.302213 0.000883773 0.5 1000 0 0 0 
370 2 0.300445 0.00176755 0.5 1000 0 0 0 
173 2 0.30398 0 0.5 1000 0 0 0 
174 2 0.305747 0.000883773 0.5 1000 0 0 0 
371 2 0.30398 0.00176755 0.5 1000 0 0 0 
175 2 0.307515 0 0.5 1000 0 0 0 
176 2 0.309282 0.000883773 0.5 1000 0 0 0 
177 2 0.311049 0 0.5 1000 0 0 0 
372 2 0.307515 0.00176755 0.5 1000 0 0 0 
373 2 0.311049 0.00176755 0.5 1000 0 0 0 
178 2 0.312817 0.000883773 0.5 1000 0 0 0 
179 2 0.314584 0 0.5 1000 0 0 0 
180 2 0.316351 0.000883773 0.5 1000 0 0 0 
374 2 0.314584 0.00176755 0.5 1000 0 0 0 
181 2 0.318119 0 0.5 1000 0 0 0 
182 2 0.319886 0.000883773 0.5 1000 0 0 0 
183 2 0.321653 0 0.5 1000 0 0 0 
375 2 0.318119 0.00176755 0.5 1000 0 0 0 
376 2 0.321653 0.00176755 0.5 1000 0 0 0 
184 2 0.32342 0.000883773 0.5 1000 0 0 0 
185 2 0.325188 0 0.5 1000 0 0 0 
377 2 0.325188 0.00176755 0.5 1000 0 0 0 
186 2 0.326955 0.000883773 0.5 1000 0 0 0 
187 2 0.328722 0 0.5 1000 0 0 0 
188 2 0.33049 0.000883773 0.5 1000 0 0 0 
378 2 0.328722 0.00176755 0.5 1000 0 0 0 
189 2 0.332257 0 0.5 1000 0 0 0 
379 2 0.332257 0.00176755 0.5 1000 0 0 0 
190 2 0.334024 0.000883773 0.5 1000 0 0 0 
191 2 0.335792 0 0.5 1000 0 0 0 
380 2 0.335792 0.00176755 0.5 1000 0 0 0 
192 2 0.337559 0.000883773 0.5 1000 0 0 0 
193 2 0.339326 0 0.5 1000 0 0 0 
194 2 0.341094 0.000883773 0.5 1000 0 0 0 
381 2 0.339326 0.00176755 0.5 1000 0 0 0 
195 2 0.342861 0 0.5 1000 0 0 0 
196 2 0.344628 0.000883773 0.5 1000 0 0 0 
382 2 0.342861 0.00176755 0.5 1000 0 0 0 
197 2 0.346396 0 0.5 1000 0 0 0 
198 2 0.348163 0.000883773 0.5 1000 0 0 0 
199 2 0.34993 0 0.5 1000 0 0 0 
383 2 0.346396 0.00176755 0.5 1000 0 0 0 
384 2 0.34993 0.00176755 0.5 1000 0 0 0 
200 2 0.351698 0.000883773 0.5 1000 0 0 0 
201 2 0.353465 0 0.5 1000 0 0 0 
202 2 0.355232 0.000883773 0.5 1000 0 0 0 
385 2 0.353465 0.00176755 0.5 1000 0 0 0 
203 2 0.357 0 0.5 1000 0 0 0 
204 2 0.358767 0.000883773 0.5 1000 0 0 0 
205 2 0.360534 0 0.5 1000 0 0 0 
386 2 0.357 0.00176755 0.5 1000 0 0 0 
387 2 0.360534 0.00176755 0.5 1000 0 0 0 
206 2 0.362302 0.000883773 0.5 1000 0 0 0 
207 2 0.364069 0 0.5 1000 0 0 0 
208 2 0.365836 0.000883773 0.5 1000 0 0 0 
388 2 0.364069 0.00176755 0.5 1000 0 0 0 
209 2 0.367604 0 0.5 1000 0 0 0 
210 2 0.369371 0.000883773 0.5 1000 0 0 0 
389 2 0.367604 0.00176755 0.5 1000 0 0 0 
211 2 0.371138 0 0.5 1000 0 0 0 
212 2 0.372906 0.000883773 0.5 1000 0 0 0 
213 2 0.374673 0 0.5 1000 0 0 0 
390 2 0.371138 0.00176755 0.5 1000 0 0 0 
391 2 0.374673 0.00176755 0.5 1000 0 0 0 
214 2 0.37644 0.000883773 0.5 1000 0 0 0 
215 2 0.378208 0 0.5 1000 0 0 0 
216 2 0.379975 0.000883773 0.5 1000 0 0 0 
392 2 0.378208 0.00176755 0.5 1000 0 0 0 
217 2 0.381742 0 0.5 1000 0 0 0 
218 2 0.38351 0.000883773 0.5 1000 0 0 0 
219 2 0.385277 0 0.5 1000 0 0 0 
393 2 0.381742 0.00176755 0.5 1000 0 0 0 
394 2 0.385277 0.00176755 0.5 1000 0 0 0 
220 2 0.387044 0.000883773 0.5 1000 0 0 0 
221 2 0.388812 0 0.5 1000 0 0 0 
395 2 0.388812 0.00176755 0.5 1000 0 0 0 
222 2 0.390579 0.000883773 0.5 1000 0 0 0 
223 2 0.392346 0 0.5 1000 0 0 0 
224 2 0.394114 0.000883773 0.5 1000 0 0 0 
396 2 0.392346 0.00176755 0.5 1000 0 0 0 
225 2 0.395881 0 0.5 1000 0 0 0 
226 2 0.397648 0.000883773 0.5 1000 0 0 0 
227 2 0.399415 0 0.5 1000 0 0 0 
397 2 0.395881 0.00176755 0.5 1000 0 0 0 
398 2 0.399415 0.00176755 0.5 1000 0 0 0 
228 2 0.401183 0.000883773 0.5 1000 0 0 0 
229 2 0.40295 0 0.5 1000 0 0 0 
230 2 0.404717 0.000883773 0.5 1000 0 0 0 
399 2 0.40295 0.00176755 0.5 1000 0 0 0 
231 2 0.406485 0 0.5 1000 0 0 0 
232 2 0.408252 0.000883773 0.5 1000 0 0 0 
400 2 0.406485 0.00176755 0.5 1000 0 0 0 
233 2 0.410019 0 0.5 1000 0 0 0 
234 2 0.411787 0.000883773 0.5 1000 0 0 0 
235 2 0.413554 0 0.5 1000 0 0 0 
401 2 0.410019 0.00176755 0.5 1000 0 0 0 
402 2 0.413554 0.00176755 0.5 1000 0 0 0 
236 2 0.415321 0.000883773 0.5 1000 0 0 0 
237 2 0.417089 0 0.5 1000 0 0 0 
238 2 0.418856 0.000883773 0.5 1000 0 0 0 
403 2 0.417089 0.00176755 0.5 1000 0 0 0 
239 2 0.420623 0 0.5 1000 0 0 0 
240 2 0.422391 0.000883773 0.5 1000 0 0 0 
241 2 0.424158 0 0.5 1000 0 0 0 
404 2 0.420623 0.00176755 0.5 1000 0 0 0 
405 2 0.424158 0.00176755 0.5 1000 0 0 0 
242 2 0.425925 0.000883773 0.5 1000 0 0 0 
243 2 0.427693 0 0.5 1000 0 0 0 
406 2 0.427693 0.00176755 0.5 1000 0 0 0 
244 2 0.42946 0.000883773 0.5 1000 0 0 0 
245 2 0.431227 0 0.5 1000 0 0 0 
246 2 0.432995 0.000883773 0.5 1000 0 0 0 
407 2 0.431227 0.00176755 0.5 1000 0 0 0 
247 2 0.434762 0 0.5 1000 0 0 0 
248 2 0.436529 0.000883773 0.5 1000 0 0 0 
249 2 0.438297 0 0.5 1000 0 0 0 
408 2 0.434762 0.00176755 0.5 1000 0 0 0 
409 2 0.438297 0.00176755 0.5 1000 0 0 0 
250 2 0.440064 0.000883773 0.5 1000 0 0 0 
251 2 0.441831 0 0.5 1000 0 0 0 
252 2 0.443599 0.000883773 0.5 1000 0 0 0 
410 2 0.441831 0.00176755 0.5 1000 0 0 0 
253 2 0.445366 0 0.5 1000 0 0 0 
254 2 0.447133 0.000883773 0.5 1000 0 0 0 
411 2 0.445366 0.00176755 0.5 1000 0 0 0 
255 2 0.448901 0 0.5 1000 0 0 0 
256 2 0.450668 0.000883773 0.5 1000 0 0 0 
257 2 0.452435 0 0.5 1000 0 0 0 
412 2 0.448901 0.00176755 0.5 1000 0 0 0 
413 2 0.452435 0.00176755 0.5 1000 0 0 0 
258 2 0.454203 0.000883773 0.5 1000 0 0 0 
259 2 0.45597 0 0.5 1000 0 0 0 
260 2 0.457737 0.000883773 0.5 1000 0 0 0 
414 2 0.45597 0.00176755 0.5 1000 0 0 0 
261 2 0.459505 0 0.5 1000 0 0 0 
262 2 0.461272 0.000883773 0.5 1000 0 0 0 
263 2 0.463039 0 0.5 1000 0 0 0 
415 2 0.459505 0.00176755 0.5 1000 0 0 0 
416 2 0.463039 0.00176755 0.5 1000 0 0 0 
264 2 0.464807 0.000883773 0.5 1000 0 0 0 
265 2 0.466574 0 0.5 1000 0 0 0 
417 2 0.466574 0.00176755 0.5 1000 0 0 0 
266 2 0.468341 0.000883773 0.5 1000 0 0 0 
267 2 0.470108 0 0.5 1000 0 0 0 
268 2 0.471876 0.000883773 0.5 1000 0 0 0 
418 2 0.470108 0.00176755 0.5 1000 0 0 0 
269 2 0.473643 0 0.5 1000 0 0 0 
270 2 0.47541 0.000883773 0.5 1000 0 0 0 
271 2 0.477178 0 0.5 1000 0 0 0 
419 2 0.473643 0.00176755 0.5 1000 0 0 0 
420 2 0.477178 0.00176755 0.5 1000 0 0 0 
272 2 0.478945 0.000883773 0.5 1000 0 0 0 
273 2 0.480712 0 0.5 1000 0 0 0 
274 2 0.48248 0.000883773 0.5 1000 0 0 0 
421 2 0.480712 0.00176755 0.5 1000 0 0 0 
275 2 0.484247 0 0.5 1000 0 0 0 
276 2 0.486014 0.000883773 0.5 1000 0 0 0 
277 2 0.487782 0 0.5 1000 0 0 0 
422 2 0.484247 0.00176755 0.5 1000 0 0 0 
423 2 0.487782 0.00176755 0.5 1000 0 0 0 
278 2 0.489549 0.000883773 0.5 1000 0 0 0 
279 2 0.491316 0 0.5 1000 0 0 0 
424 2 0.491316 0.00176755 0.5 1000 0 0 0 
280 2 0.493084 0.000883773 0.5 1000 0 0 0 
281 2 0.494851 0 0.5 1000 0 0 0 
282 2 0.496618 0.000883773 0.5 1000 0 0 0 
425 2 0.494851 0.00176755 0.5 1000 0 0 0 
283 2 0.498386 0 0.5 1000 0 0 0 
426 2 0.498386 0.00176755 0.5 1000 0 0 0 
2539 2 0.500153 0.000883773 0.5 1000 0 0 0 
2540 2 0.50192 0 0.5 1000 0 0 0 
2822 2 0.50192 0.00176755 0.5 1000 0 0 0 
5077 2 0.50192 0 0.5 1000 0 0 0 
2541 2 0.503688 0.000883773 0.5 1000 0 0 0 
2542 2 0.505455 0 0.5 1000 0 0 0 
2543 2 0.507222 0.000883773 0.5 1000 0 0 0 
2823 2 0.505455 0.00176755 0.5 1000 0 0 0 
5078 2 0.503688 0.000883773 0.5 1000 0 0 0 
5079 2 0.505455 0 0.5 1000 0 0 0 
5080 2 0.507222 0.000883773 0.5 1000 0 0 0 
5119 2 0.505455 0.00176755 0.5 1000 0 0 0 
2544 2 0.50899 0 0.5 1000 0 0 0 
2545 2 0.510757 0.000883773 0.5 1000 0 0 0 
2824 2 0.50899 0.00176755 0.5 1000 0 0 0 
5081 2 0.50899 0 0.5 1000 0 0 0 
5082 2 0.510757 0.000883773 0.5 1000 0 0 0 
5121 2 0.50899 0.00176755 0.5 1000 0 0 0 
2546 2 0.512524 0 0.5 1000 0 0 0 
2547 2 0.514292 0.000883773 0.5 1000 0 0 0 
2548 2 0.516059 0 0.5 1000 0 0 0 
2825 2 0.512524 0.00176755 0.5 1000 0 0 0 
2826 2 0.516059 0.00176755 0.5 1000 0 0 0 
5083 2 0.512524 0 0.5 1000 0 0 0 
5084 2 0.514292 0.000883773 0.5 1000 0 0 0 
5085 2 0.516059 0 0.5 1000 0 0 0 
5123 2 0.512524 0.00176755 0.5 1000 0 0 0 
5125 2 0.516059 0.00176755 0.5 1000 0 0 0 
2549 2 0.517826 0.000883773 0.5 1000 0 0 0 
2550 2 0.519594 0 0.5 1000 0 0 0 
2551 2 0.521361 0.000883773 0.5 1000 0 0 0 
2827 2 0.519594 0.00176755 0.5 1000 0 0 0 
5086 2 0.517826 0.000883773 0.5 1000 0 0 0 
5087 2 0.519594 0 0.5 1000 0 0 0 
5088 2 0.521361 0.000883773 0.5 1000 0 0 0 
5127 2 0.519594 0.00176755 0.5 1000 0 0 0 
2552 2 0.523128 0 0.5 1000 0 0 0 
2553 2 0.524896 0.000883773 0.5 1000 0 0 0 
2554 2 0.526663 0 0.5 1000 0 0 0 
2828 2 0.523128 0.00176755 0.5 1000 0 0 0 
2829 2 0.526663 0.00176755 0.5 1000 0 0 0 
5089 2 0.523128 0 0.5 1000 0 0 0 
5090 2 0.524896 0.000883773 0.5 1000 0 0 0 
5091 2 0.526663 0 0.5 1000 0 0 0 
5129 2 0.523128 0.00176755 0.5 1000 0 0 0 
5131 2 0.526663 0.00176755 0.5 1000 0 0 0 
2555 2 0.52843 0.000883773 0.5 1000 0 0 0 
2556 2 0.530198 0 0.5 1000 0 0 0 
2830 2 0.530198 0.00176755 0.5 1000 0 0 0 
5092 2 0.52843 0.000883773 0.5 1000 0 0 0 
5093 2 0.530198 0 0.5 1000 0 0 0 
5133 2 0.530198 0.00176755 0.5 1000 0 0 0 
2557 2 0.531965 0.000883773 0.5 1000 0 0 0 
2558 2 0.533732 0 0.5 1000 0 0 0 
2559 2 0.5355 0.000883773 0.5 1000 0 0 0 
2831 2 0.533732 0.00176755 0.5 1000 0 0 0 
5094 2 0.531965 0.000883773 0.5 1000 0 0 0 
5095 2 0.533732 0 0.5 1000 0 0 0 
5096 2 0.5355 0.000883773 0.5 1000 0 0 0 
5135 2 0.533732 0.00176755 0.5 1000 0 0 0 
2560 2 0.537267 0 0.5 1000 0 0 0 
2561 2 0.539034 0.000883773 0.5 1000 0 0 0 
2562 2 0.540801 0 0.5 1000 0 0 0 
2832 2 0.537267 0.00176755 0.5 1000 0 0 0 
2833 2 0.540801 0.00176755 0.5 1000 0 0 0 
5097 2 0.537267 0 0.5 1000 0 0 0 
5098 2 0.539034 0.000883773 0.5 1000 0 0 0 
5099 2 0.540801 0 0.5 1000 0 0 0 
5137 2 0.537267 0.00176755 0.5 1000 0 0 0 
5139 2 0.540801 0.00176755 0.5 1000 0 0 0 
2563 2 0.542569 0.000883773 0.5 1000 0 0 0 
2564 2 0.544336 0 0.5 1000 0 0 0 
2565 2 0.546103 0.000883773 0.5 1000 0 0 0 
2834 2 0.544336 0.00176755 0.5 1000 0 0 0 
5100 2 0.542569 0.000883773 0.5 1000 0 0 0 
5101 2 0.544336 0 0.5 1000 0 0 0 
5102 2 0.546103 0.000883773 0.5 1000 0 0 0 
5141 2 0.544336 0.00176755 0.5 1000 0 0 0 
2566 2 0.547871 0 0.5 1000 0 0 0 
2567 2 0.549638 0.000883773 0.5 1000 0 0 0 
2835 2 0.547871 0.00176755 0.5 1000 0 0 0 
5103 2 0.547871 0 0.5 1000 0 0 0 
5104 2 0.549638 0.000883773 0.5 1000 0 0 0 
5143 2 0.547871 0.00176755 0.5 1000 0 0 0 
2568 2 0.551405 0 0.5 1000 0 0 0 
2569 2 0.553173 0.000883773 0.5 1000 0 0 0 
2570 2 0.55494 0 0.5 1000 0 0 0 
2836 2 0.551405 0.00176755 0.5 1000 0 0 0 
2837 2 0.55494 0.00176755 0.5 1000 0 0 0 
5105 2 0.551405 0 0.5 1000 0 0 0 
5106 2 0.553173 0.000883773 0.5 1000 0 0 0 
5107 2 0.55494 0 0.5 1000 0 0 0 
5145 2 0.551405 0.00176755 0.5 1000 0 0 0 
5147 2 0.55494 0.00176755 0.5 1000 0 0 0 
2571 2 0.556707 0.000883773 0.5 1000 0 0 0 
2572 2 0.558475 0 0.5 1000 0 0 0 
2573 2 0.560242 0.000883773 0.5 1000 0 0 0 
2838 2 0.558475 0.00176755 0.5 1000 0 0 0 
5108 2 0.556707 0.000883773 0.5 1000 0 0 0 
5109 2 0.558475 0 0.5 1000 0 0 0 
5110 2 0.560242 0.000883773 0.5 1000 0 0 0 
5149 2 0.558475 0.00176755 0.5 1000 0 0 0 
2574 2 0.562009 0 0.5 1000 0 0 0 
2575 2 0.563777 0.000883773 0.5 1000 0 0 0 
2576 2 0.565544 0 0.5 1000 0 0 0 
2839 2 0.562009 0.00176755 0.5 1000 0 0 0 
2840 2 0.565544 0.00176755 0.5 1000 0 0 0 
5111 2 0.562009 0 0.5 1000 0 0 0 
5112 2 0.563777 0.000883773 0.5 1000 0 0 0 
5113 2 0.565544 0 0.5 1000 0 0 0 
5151 2 0.562009 0.00176755 0.5 1000 0 0 0 
5153 2 0.565544 0.00176755 0.5 1000 0 0 0 
2577 2 0.567311 0.000883773 0.5 1000 0 0 0 
2578 2 0.569079 0 0.5 1000 0 0 0 
2841 2 0.569079 0.00176755 0.5 1000 0 0 0 
5114 2 0.567311 0.000883773 0.5 1000 0 0 0 
5115 2 0.569079 0 0.5 1000 0 0 0 
5155 2 0.569079 0.00176755 0.5 1000 0 0 0 
2579 2 0.570846 0.000883773 0.5 1000 0 0 0 
2580 2 0.572613 0 0.5 1000 0 0 0 
2581 2 0.574381 0.000883773 0.5 1000 0 0 0 
2842 2 0.572613 0.00176755 0.5 1000 0 0 0 
5116 2 0.570846 0.000883773 0.5 1000 0 0 0 
5117 2 0.572613 0 0.5 1000 0 0 0 
5118 2 0.574381 0.000883773 0.5 1000 0 0 0 
5157 2 0.572613 0.00176755 0.5 1000 0 0 0 
2582 2 0.576148 0 0.5 1000 0 0 0 
2583 2 0.577915 0.000883773 0.5 1000 0 0 0 
2584 2 0.579683 0 0.5 1000 0 0 0 
2843 2 0.576148 0.00176755 0.5 1000 0 0 0 
2844 2 0.579683 0.00176755 0.5 1000 0 0 0 
2585 2 0.58145 0.000883773 0.5 1000 0 0 0 
2586 2 0.583217 0 0.5 1000 0 0 0 
2845 2 0.583217 0.00176755 0.5 1000 0 0 0 
2587 2 0.584985 0.000883773 0.5 1000 0 0 0 
2588 2 0.586752 0 0.5 1000 0 0 0 
2589 2 0.588519 0.000883773 0.5 1000 0 0 0 
2846 2 0.586752 0.00176755 0.5 1000 0 0 0 
2590 2 0.590287 0 0.5 1000 0 0 0 
2591 2 0.592054 0.000883773 0.5 1000 0 0 0 
2592 2 0.593821 0 0.5 1000 0 0 0 
2847 2 0.590287 0.00176755 0.5 1000 0 0 0 
2848 2 0.593821 0.00176755 0.5 1000 0 0 0 
2593 2 0.595589 0.000883773 0.5 1000 0 0 0 
2594 2 0.597356 0 0.5 1000 0 0 0 
2595 2 0.599123 0.000883773 0.5 1000 0 0 0 
2849 2 0.597356 0.00176755 0.5 1000 0 0 0 
2596 2 0.600891 0 0.5 1000 0 0 0 
2597 2 0.602658 0.000883773 0.5 1000 0 0 0 
2598 2 0.604425 0 0.5 1000 0 0 0 
2850 2 0.600891 0.00176755 0.5 1000 0 0 0 
2851 2 0.604425 0.00176755 0.5 1000 0 0 0 
2599 2 0.606193 0.000883773 0.5 1000 0 0 0 
2600 2 0.60796 0 0.5 1000 0 0 0 
2601 2 0.609727 0.000883773 0.5 1000 0 0 0 
2852 2 0.60796 0.00176755 0.5 1000 0 0 0 
2602 2 0.611494 0 0.5 1000 0 0 0 
2603 2 0.613262 0.000883773 0.5 1000 0 0 0 
2853 2 0.611494 0.00176755 0.5 1000 0 0 0 
2604 2 0.615029 0 0.5 1000 0 0 0 
2605 2 0.616796 0.000883773 0.5 1000 0 0 0 
2606 2 0.618564 0 0.5 1000 0 0 0 
2854 2 0.615029 0.00176755 0.5 1000 0 0 0 
2855 2 0.618564 0.00176755 0.5 1000 0 0 0 
2607 2 0.620331 0.000883773 0.5 1000 0 0 0 
2608 2 0.622098 0 0.5 1000 0 0 0 
2609 2 0.623866 0.000883773 0.5 1000 0 0 0 
2856 2 0.622098 0.00176755 0.5 1000 0 0 0 
2610 2 0.625633 0 0.5 1000 0 0 0 
2611 2 0.6274 0.000883773 0.5 1000 0 0 0 
2612 2 0.629168 0 0.5 1000 0 0 0 
2857 2 0.625633 0.00176755 0.5 1000 0 0 0 
2858 2 0.629168 0.00176755 0.5 1000 0 0 0 
2613 2 0.630935 0.000883773 0.5 1000 0 0 0 
2614 2 0.632702 0 0.5 1000 0 0 0 
2859 2 0.632702 0.00176755 0.5 1000 0 0 0 
2615 2 0.63447 0.000883773 0.5 1000 0 0 0 
2616 2 0.636237 0 0.5 1000 0 0 0 
2617 2 0.638004 0.000883773 0.5 1000 0 0 0 
2860 2 0.636237 0.00176755 0.5 1000 0 0 0 
2618 2 0.639772 0 0.5 1000 0 0 0 
2619 2 0.641539 0.000883773 0.5 1000 0 0 0 
2620 2 0.643306 0 0.5 1000 0 0 0 
2861 2 0.639772 0.00176755 0.5 1000 0 0 0 
2862 2 0.643306 0.00176755 0.5 1000 0 0 0 
2621 2 0.645074 0.000883773 0.5 1000 0 0 0 
2622 2 0.646841 0 0.5 1000 0 0 0 
2623 2 0.648608 0.000883773 0.5 1000 0 0 0 
2863 2 0.646841 0.00176755 0.5 1000 0 0 0 
2624 2 0.650376 0 0.5 1000 0 0 0 
2625 2 0.652143 0.000883773 0.5 1000 0 0 0 
2864 2 0.650376 0.00176755 0.5 1000 0 0 0 
2626 2 0.65391 0 0.5 1000 0 0 0 
2627 2 0.655678 0.000883773 0.5 1000 0 0 0 
2628 2 0.657445 0 0.5 1000 0 0 0 
2865 2 0.65391 0.00176755 0.5 1000 0 0 0 
2866 2 0.657445 0.00176755 0.5 1000 0 0 0 
2629 2 0.659212 0.000883773 0.5 1000 0 0 0 
2630 2 0.66098 0 0.5 1000 0 0 0 
2631 2 0.662747 0.000883773 0.5 1000 0 0 0 
2867 2 0.66098 0.00176755 0.5 1000 0 0 0 
2632 2 0.664514 0 0.5 1000 0 0 0 
2633 2 0.666282 0.000883773 0.5 1000 0 0 0 
2868 2 0.664514 0.00176755 0.5 1000 0 0 0 
2634 2 0.668049 0 0.5 1000 0 0 0 
2869 2 0.668049 0.00176755 0.5 1000 0 0 0 
2635 2 0.669816 0.000883773 0.5 1000 0 0 0 
2636 2 0.671584 0 0.5 1000 0 0 0 
2870 2 0.671584 0.00176755 0.5 1000 0 0 0 
2637 2 0.673351 0.000883773 0.5 1000 0 0 0 
2638 2 0.675118 0 0.5 1000 0 0 0 
2639 2 0.676886 0.000883773 0.5 1000 0 0 0 
2871 2 0.675118 0.00176755 0.5 1000 0 0 0 
2640 2 0.678653 0 0.5 1000 0 0 0 
2641 2 0.68042 0.000883773 0.5 1000 0 0 0 
2642 2 0.682187 0 0.5 1000 0 0 0 
2872 2 0.678653 0.00176755 0.5 1000 0 0 0 
2873 2 0.682187 0.00176755 0.5 1000 0 0 0 
2643 2 0.683955 0.000883773 0.5 1000 0 0 0 
2644 2 0.685722 0 0.5 1000 0 0 0 
2645 2 0.687489 0.000883773 0.5 1000 0 0 0 
2874 2 0.685722 0.00176755 0.5 1000 0 0 0 
2646 2 0.689257 0 0.5 1000 0 0 0 
2647 2 0.691024 0.000883773 0.5 1000 0 0 0 
2875 2 0.689257 0.00176755 0.5 1000 0 0 0 
2648 2 0.692791 0 0.5 1000 0 0 0 
2649 2 0.694559 0.000883773 0.5 1000 0 0 0 
2650 2 0.696326 0 0.5 1000 0 0 0 
2876 2 0.692791 0.00176755 0.5 1000 0 0 0 
2877 2 0.696326 0.00176755 0.5 1000 0 0 0 
2651 2 0.698093 0.000883773 0.5 1000 0 0 0 
2652 2 0.699861 0 0.5 1000 0 0 0 
2653 2 0.701628 0.000883773 0.5 1000 0 0 0 
2878 2 0.699861 0.00176755 0.5 1000 0 0 0 
2654 2 0.703395 0 0.5 1000 0 0 0 
2655 2 0.705163 0.000883773 0.5 1000 0 0 0 
2656 2 0.70693 0 0.5 1000 0 0 0 
2879 2 0.703395 0.00176755 0.5 1000 0 0 0 
2880 2 0.70693 0.00176755 0.5 1000 0 0 0 
2657 2 0.708697 0.000883773 0.5 1000 0 0 0 
2658 2 0.710465 0 0.5 1000 0 0 0 
2881 2 0.710465 0.00176755 0.5 1000 0 0 0 
2659 2 0.712232 0.000883773 0.5 1000 0 0 0 
2660 2 0.713999 0 0.5 1000 0 0 0 
2661 2 0.715767 0.000883773 0.5 1000 0 0 0 
2882 2 0.713999 0.00176755 0.5 1000 0 0 0 
2662 2 0.717534 0 0.5 1000 0 0 0 
2663 2 0.719301 0.000883773 0.5 1000 0 0 0 
2664 2 0.721069 0 0.5 1000 0 0 0 
2883 2 0.717534 0.00176755 0.5 1000 0 0 0 
2884 2 0.721069 0.00176755 0.5 1000 0 0 0 
2665 2 0.722836 0.000883773 0.5 1000 0 0 0 
2666 2 0.724603 0 0.5 1000 0 0 0 
2667 2 0.726371 0.000883773 0.5 1000 0 0 0 
2885 2 0.724603 0.00176755 0.5 1000 0 0 0 
2668 2 0.728138 0 0.5 1000 0 0 0 
2669 2 0.729905 0.000883773 0.5 1000 0 0 0 
2670 2 0.731673 0 0.5 1000 0 0 0 
2886 2 0.728138 0.00176755 0.5 1000 0 0 0 
2887 2 0.731673 0.00176755 0.5 1000 0 0 0 
2671 2 0.73344 0.000883773 0.5 1000 0 0 0 
2672 2 0.735207 0 0.5 1000 0 0 0 
2888 2 0.735207 0.00176755 0.5 1000 0 0 0 
2673 2 0.736975 0.000883773 0.5 1000 0 0 0 
2674 2 0.738742 0 0.5 1000 0 0 0 
2675 2 0.740509 0.000883773 0.5 1000 0 0 0 
2889 2 0.738742 0.00176755 0.5 1000 0 0 0 
2676 2 0.742277 0 0.5 1000 0 0 0 
2677 2 0.744044 0.000883773 0.5 1000 0 0 0 
2678 2 0.745811 0 0.5 1000 0 0 0 
2890 2 0.742277 0.00176755 0.5 1000 0 0 0 
2891 2 0.745811 0.00176755 0.5 1000 0 0 0 
2679 2 0.747579 0.000883773 0.5 1000 0 0 0 
2680 2 0.749346 0 0.5 1000 0 0 0 
2892 2 0.749346 0.00176755 0.5 1000 0 0 0 
2681 2 0.751113 0.000883773 0.5 1000 0 0 0 
2682 2 0.752881 0 0.5 1000 0 0 0 
2683 2 0.754648 0.000883773 0.5 1000 0 0 0 
2893 2 0.752881 0.00176755 0.5 1000 0 0 0 
2684 2 0.756415 0 0.5 1000 0 0 0 